# vtk DataFile Version 2.0
Real E_alpha
ASCII
DATASET STRUCTURED_POINTS
DIMENSIONS      16      16       1
ORIGIN       0.965      -1.174       0
SPACING  0.09580  0.15190       1
POINT_DATA       256
SCALARS Real_E_alpha float 1
LOOKUP_TABLE default
           0.0000           0.0000           0.0000          -0.0000          -0.0000           0.0000
          -0.0000           0.0000          -0.0000           0.0000           0.0000           0.0000
           0.0000          -0.0000           0.0000          -0.0000           0.0000        1184.5000
       -1568.8000       -1303.4000         426.3500        -121.0300          15.9590         -37.9170
       -7023.7002        2788.8000       -1734.4000        1840.9000       -2131.7000        7875.2002
       -8705.2998           0.0000           0.0000       -1205.1000        1245.6000       -2267.8000
         131.7500         -84.2390         109.2400         -24.2240          -7.0674          89.8310
        8577.7002       -2175.0000        2285.5000       -6359.7998        6403.5000          -0.0000
           0.0000        1740.4000       -2135.1001         924.7200         -34.6970          -1.9040
         -60.8870          -2.9791          64.2140        -114.3100           4.9553        -537.0000
       -1959.9000        5434.6001       -6828.5000           0.0000          -0.0000       -3064.7000
        9345.0996        -544.3100        -174.1300          87.6770         -50.4130          21.9580
         -47.7590          54.9210         -28.8190          93.4240       -2058.3000       -9545.7998
       11229.0000           0.0000          -0.0000       -1089.3000       86443.0000       -1541.7000
          -1.3732         222.5900        -156.4000          74.2650          40.0490        -149.8000
         312.9800        -594.3900        1157.3000      -30427.0000      -12850.0000           0.0000
          -0.0000        1207.8000       13782.0000       -4387.2998        1378.3000        -764.1800
         449.7000        -237.0700          87.5790          48.0310        -211.0500         534.4500
       -1189.6000        5340.0000       80944.0000          -0.0000           0.0000        -569.5600
       -3638.8999        2396.7000         -65.1320        -290.3500         378.3900        -399.1900
         376.9000        -393.1600         409.7800        -421.7700         734.6600       -3416.8000
      292210.0000          -0.0000          -0.0000        1686.7000        2347.5000       -2797.3000
         298.0400          13.5370         -75.7150          87.1030         -52.2770          53.1810
         -53.2170          46.2700        -222.2800        -217.8300      141480.0000           0.0000
          -0.0000        -534.7300         855.4200        2852.2000         -44.2630        -298.0500
         344.8700        -350.8600         301.2700        -319.5600         402.0600        -493.3400
         965.6900       -2477.3999       78196.0000          -0.0000          -0.0000        2401.1001
        5524.7998       -5404.2998        1451.9000        -830.8500         634.5300        -516.0000
         501.2100        -391.9800         152.8400         153.7100         194.1600     -682810.0000
      -70644.0000           0.0000           0.0000       -1137.7000        4609.2998        6990.6001
       -1951.5000        1109.4000        -825.7700         668.6600        -685.5900         603.7600
        -408.5500         514.2300         177.4200      -72097.0000        3552.7000          -0.0000
          -0.0000        1590.8000       -2787.1001      -10509.0000        2188.0000       -1046.0000
         705.4100        -540.0200         590.4000        -563.9900          33.2760        -357.8400
       18852.0000       10229.0000       -8234.7002           0.0000          -0.0000       -2459.6001
        5060.7002       33887.0000       -3963.8000        1591.2000        -965.5900         750.1900
        -842.4400         957.1300       -7467.1001        1140.5000        -577.0400       -6223.1001
        6655.7002          -0.0000           0.0000       -2774.5000       -3974.0000     -501260.0000
       15048.0000       -2612.3000        1109.9000        -741.3300        -542.9300       -1049.9000
       -6988.2002        1974.8000       -2680.0000       12639.0000      -29530.0000           0.0000
          -0.0000           0.0000          -0.0000           0.0000           0.0000          -0.0000
           0.0000          -0.0000           0.0000          -0.0000           0.0000          -0.0000
          -0.0000           0.0000          -0.0000           0.0000
SCALARS Acold float 1
LOOKUP_TABLE default
         -94.9520         -78.6930         -66.3910         -56.7600         -48.8880         -42.2640
         -36.7170         -32.1380         -28.3700         -25.2350         -22.5680         -20.2330
         -18.0990         -15.8930         -14.1470         -13.7350         -93.9480         -78.1410
         -66.0520         -57.0260         -49.9260         -43.6790         -38.1200         -32.6650
         -28.5240         -25.1640         -22.3860         -20.0030         -17.8660         -15.8370
         -13.7600         -13.0490         -93.4880         -77.6960         -65.7480         -57.3010
         -50.2570         -44.0400         -38.7760         -34.2690         -30.2890         -25.8160
         -22.3120         -19.8550         -17.8430         -16.1670         -14.8530         -13.8940
         -93.4530         -77.5110         -65.6430         -57.6170         -50.2190         -43.9620
         -38.8160         -34.4520         -30.5760         -27.0690         -23.9210         -19.8610
         -17.7300         -16.1240         -14.8240         -13.7670         -93.6110         -77.5600
         -66.0490         -57.7400         -50.1030         -43.9890         -39.0070         -34.7650
         -31.0490         -27.6330         -24.3540         -21.3980         -17.6370         -15.8040
         -14.3710         -13.0530         -93.7340         -77.7870         -66.9170         -57.7620
         -50.1100         -44.1010         -39.1370         -34.9830         -31.4160         -28.1640
         -24.9800         -21.8160         -18.9720         -15.4960         -13.9030         -12.3150
         -94.1590         -78.2050         -67.3590         -57.7980         -50.1930         -44.1860
         -39.2270         -35.1320         -31.6560         -28.5440         -25.5310         -22.3840
         -19.2690         -15.7600         -13.9200         -12.6830         -94.3970         -78.7550
         -67.5170         -57.8350         -50.2580         -44.2350         -39.2800         -35.2060
         -31.7650         -28.7130         -25.8220         -22.8160         -19.6890         -17.0450
         -14.1560         -13.1450         -94.4020         -78.8720         -67.5370         -57.8420
         -50.2710         -44.2440         -39.2900         -35.2190         -31.7830         -28.7450
         -25.8700         -22.9060         -19.7830         -17.1390         -14.2140         -13.2290
         -94.2890         -78.3780         -67.4530         -57.8160         -50.2280         -44.2130
         -39.2570         -35.1750         -31.7210         -28.6460         -25.7030         -22.6240
         -19.5020         -16.6860         -14.0310         -12.9400         -93.9170         -77.9740
         -67.1750         -57.7770         -50.1460         -44.1440         -39.1830         -35.0630
         -31.5470         -28.3710         -25.2630         -22.0930         -19.0880         -15.5020
         -13.8470         -12.3800         -93.6900         -77.6530         -66.5020         -57.7510
         -50.0890         -44.0420         -39.0740         -34.8730         -31.2290         -27.8860
         -24.6560         -21.5150         -18.0310         -15.6260         -14.1110         -12.6040
         -93.5260         -77.4990         -65.6850         -57.6950         -50.1560         -43.9470
         -38.9090         -34.6160         -30.8160         -27.3080         -24.0780         -20.6170
         -17.6440         -15.9940         -14.6560         -13.5250         -93.3550         -77.5440
         -65.6480         -57.4460         -50.2670         -44.0190         -38.7780         -34.3130
         -30.4160         -26.9180         -22.5080         -19.7940         -17.7920         -16.1810
         -14.9090         -13.9130         -93.5680         -77.8870         -65.8940         -57.1390
         -50.1430         -43.9590         -38.6560         -33.9640         -28.9210         -25.2110
         -22.3080         -19.9030         -17.8160         -15.9830         -14.5220         -13.6820
         -94.5000         -78.4470         -66.2550         -56.9170         -49.4470         -42.8090
         -36.9880         -32.2970         -28.4160         -25.1950         -22.4690         -20.0840
         -17.8830         -15.5640         -13.8110         -14.3760
SCALARS Bcold float 1
LOOKUP_TABLE default
        -118.2100        -106.9000        -101.5300         -98.3570         -91.9990         -79.4880
         -64.4330         -51.3350         -41.8850         -35.6410         -31.5750         -28.8020
         -26.6810         -24.6020         -23.0950         -23.3100        -105.9800         -96.4590
         -94.6350        -110.6300        -131.2900        -136.2000        -127.8800         -83.1100
         -58.0550         -42.0010         -33.4570         -29.0870         -26.5230         -24.5570
         -22.5980         -22.3970        -101.4600         -91.7050         -92.4010        -125.3000
        -147.3300        -153.7600        -157.4600        -159.4600        -156.3900         -98.0180
         -45.5990         -31.7690         -27.1390         -25.1310         -24.0630         -23.5410
        -101.0900         -91.4370         -95.6630        -141.1300        -153.6300        -158.8400
        -164.1600        -169.0300        -171.6300        -170.9200        -161.2000         -52.4640
         -30.2330         -25.6360         -24.1350         -23.3950        -102.3800         -94.2940
        -111.4300        -150.2700        -156.6200        -162.6700        -170.7600        -180.1000
        -187.1400        -187.2700        -181.2900        -171.8100         -49.8660         -27.1260
         -23.7350         -22.4500        -104.6700        -100.0200        -136.9000        -153.8700
        -158.7700        -166.0600        -177.4400        -193.1400        -209.1000        -216.2400
        -206.0400        -187.7900        -170.2300         -34.7220         -23.6280         -21.4850
        -108.9100        -108.4100        -148.4000        -155.6900        -160.4300        -168.7000
        -182.7300        -203.3000        -227.0500        -244.8000        -241.9900        -212.3500
        -185.8000         -75.2630         -25.6710         -22.1640        -112.2000        -121.2000
        -152.1300        -156.6100        -161.4100        -170.2700        -185.6300        -208.5100
        -235.8000        -259.8700        -266.3000        -238.9100        -197.3300        -172.7400
         -31.1540         -23.2820        -112.6500        -124.1800        -152.6200        -156.7800
        -161.6000        -170.5700        -186.1700        -209.4100        -237.2900        -262.8200
        -270.8600        -245.1600        -200.7000        -177.4900         -33.3690         -23.5890
        -110.6000        -112.0600        -150.6800        -156.2100        -160.9800        -169.5700
        -184.3700        -206.3300        -232.2400        -253.6700        -255.7600        -226.4100
        -191.6300        -149.2600         -27.9510         -22.7140        -106.4900        -103.7600
        -143.7000        -154.8500        -159.6000        -167.3900        -180.1700        -198.4600
        -218.5800        -230.9900        -223.1400        -197.7700        -179.5100         -46.4190
         -24.1870         -21.6250        -103.3900         -96.6550        -125.1100        -152.3000
        -157.6800        -164.3100        -173.9200        -186.1900        -197.0500        -199.3900
        -190.5300        -179.4600         -97.4160         -29.2330         -23.5600         -21.8530
        -101.5300         -92.3050         -99.1730        -146.3000        -155.1900        -160.6300
        -167.1800        -173.7200        -177.7800        -177.4000        -173.1100        -118.0400
         -34.9970         -26.0640         -23.9910         -23.0790        -100.7700         -90.9070
         -92.8780        -132.6900        -150.9500        -156.5100        -160.7900        -164.1500
        -165.4400        -160.2900         -69.9830         -36.1990         -27.9120         -25.3190
         -24.1770         -23.5770        -102.8200         -93.4870         -92.9710        -116.9500
        -140.5100        -147.9100        -149.9700        -143.7600         -85.6600         -51.9780
         -36.2390         -29.6700         -26.6200         -24.7810         -23.6020         -23.2470
        -112.4500        -101.9900         -98.2390        -104.4900        -113.1000        -102.6100
         -77.7420         -60.3540         -46.5570         -37.4890         -32.0670         -28.7700
         -26.4380         -24.1860         -22.6560         -24.1590
SCALARS Ccold float 1
LOOKUP_TABLE default
         -71.6940         -50.4890         -31.2500         -15.1620          -5.7761          -5.0400
          -9.0015         -12.9400         -14.8550         -14.8290         -13.5600         -11.6640
          -9.5156          -7.1843          -5.1991          -4.1598         -81.9200         -59.8220
         -37.4680          -3.4202          31.4410          48.8380          51.6420          17.7800
           1.0061          -8.3267         -11.3140         -10.9180          -9.2097          -7.1164
          -4.9226          -3.7006         -85.5200         -63.6870         -39.0950          10.6980
          46.8170          65.6790          79.9090          90.9240          95.8100          46.3870
           0.9744          -7.9409          -8.5468          -7.2022          -5.6418          -4.2471
         -85.8130         -63.5850         -35.6230          25.8980          53.1900          70.9160
          86.5250         100.1200         110.4800         116.7900         113.3600          12.7410
          -5.2281          -6.6113          -5.5128          -4.1394         -84.8450         -60.8250
         -20.6640          34.7860          56.4130          74.6940          92.7470         110.5600
         125.0500         132.0000         132.5800         129.0200          14.5930          -4.4817
          -5.0059          -3.6550         -82.7990         -55.5560           3.0682          38.3500
          58.5520          77.8630          99.1690         123.1700         146.2600         159.9100
         156.0800         144.1600         132.2900           3.7299          -4.1775          -3.1442
         -79.4110         -47.9960          13.6810          40.0980          60.0480          80.3280
         104.2700         133.0300         163.7300         187.7200         190.9300         167.5800
         147.2600          43.7430          -2.1693          -3.2026         -76.5920         -36.3120
          17.0920          40.9420          60.8950          81.7970         107.0700         138.0900
         172.2700         202.4400         214.6500         193.2800         157.9500         138.6500
           2.8416          -3.0080         -76.1510         -33.5610          17.5450          41.0940
          61.0570          82.0770         107.5900         138.9700         173.7200         205.3300
         219.1200         199.3500         161.1400         143.2100           4.9414          -2.8694
         -77.9730         -44.6990          15.7710          40.5780          60.5220          81.1480
         105.8600         135.9800         168.8000         196.3800         204.3600         181.1600
         152.6300         115.8800          -0.1099          -3.1654         -81.3390         -52.1850
           9.3534          39.2990          59.3090          79.1030         101.8000         128.3400
         155.4800         174.2500         172.6200         153.5900         141.3300          15.4160
          -3.5060          -3.1356         -83.9900         -58.6510          -7.8910          36.7930
          57.5000          76.2240          95.7710         116.4500         134.6000         143.6200
         141.2200         136.4400          61.3540          -2.0204          -4.6624          -3.3537
         -85.5240         -62.6930         -32.1970          30.9150          54.8740          72.7320
          89.3620         104.4900         116.1500         122.7900         124.9500          76.8060
          -0.2912          -5.9243          -5.3202          -3.9713         -85.9400         -64.1820
         -38.4180          17.8000          50.4200          68.4730          83.2340          95.5270
         104.6100         106.4600          24.9660          -3.3897          -7.6718          -7.0423
          -5.6406          -4.2484         -84.3120         -62.2880         -38.8160           2.6734
          40.2220          59.9930          72.6600          75.8320          27.8180           1.5570
          -8.3778         -10.1360          -9.0113          -7.1843          -5.4428          -4.1161
         -76.5520         -54.9020         -34.2710          -9.3426          14.2030          16.9930
           3.7662          -4.2394         -10.2740         -12.9020         -12.8710         -11.3990
          -9.3283          -6.9421          -4.9649          -4.5930
SCALARS Real_eb float 1
LOOKUP_TABLE default
          -0.0000           0.0000          -0.0000          -0.0000           0.0000          -0.0000
           0.0000          -0.0000           0.0000          -0.0000           0.0000          -0.0000
           0.0000          -0.0000          -0.0000           0.0000          -0.0000          46.9820
          38.1580        -104.9900        -183.9100         -86.0810         -34.5640        -301.1700
        -579.6400        -407.5000         -94.7000         -84.8230         -53.5190          56.4300
          21.0550           0.0000          -0.0000        -131.8700        -112.5000          42.9850
          61.9390          48.5320         203.4500         288.1200         168.0700          74.1390
          22.3880           2.6200         -28.6440        -201.5500        -195.7800           0.0000
          -0.0000          -5.2597          76.7760          88.4420        -117.2100        -297.0600
        -213.6500          43.3400         244.8300         257.4100         194.2400         185.0200
         169.3800         178.8800         105.9800          -0.0000           0.0000          45.4390
          29.5300          20.5440          78.8430          98.5210          24.2750         -92.5420
        -236.0000        -399.1200        -398.4300        -297.5200        -173.9700         -43.4720
          -4.7867          -0.0000          -0.0000         140.2000         120.7400         -25.8720
          -3.5473          29.2010          15.4980         111.9500         221.3400         188.6800
         100.6800          40.7680          42.5680          73.9540          62.0260          -0.0000
           0.0000         109.2200          90.4230        -102.7600        -122.6000          21.2070
          22.5660         -87.5610        -114.5100          10.3900         171.8100         148.8300
          56.8860         126.8800         123.6600           0.0000          -0.0000         147.6000
         179.0100          41.3160         -51.6820         -23.9340           5.0636          18.6040
          16.9280         -59.5370        -204.9100        -278.9500        -177.2600         -46.0120
          17.0400          -0.0000          -0.0000          12.1480         206.8400         166.4900
         -14.9470          -0.5734          41.9500         -19.5070          -0.0140          93.5900
         151.4900         256.3400         245.8100          38.2420         -51.2650           0.0000
          -0.0000        -469.6100        -280.4200          92.3690          49.3080         -60.7140
         -33.9200          22.6530          49.9950         -37.6760        -195.9900         -53.8580
          55.0570        -599.7000        -771.8900           0.0000           0.0000        -383.6600
        -250.7400         -11.5060         -10.3440          35.7820          65.9590         -56.3040
        -122.0900         -13.5230          30.7110        -115.9300         -93.9270         -68.7560
        -278.9100           0.0000          -0.0000           6.5362          26.6870          35.0060
           2.8943         -42.2470         -45.6660          14.3020         129.0600         128.1700
           4.6769         -17.0610          63.8760         274.2000         219.7100           0.0000
          -0.0000         142.3100         172.4500          81.1600         -11.7440          16.6440
          64.5290         -14.7340         -19.2230          71.3070         -20.4420        -146.0500
         -54.3970          91.8250         122.5500          -0.0000          -0.0000           9.6675
         -74.3120         -43.9030          73.8970          62.3140         -47.6430        -126.0900
         -71.9780         -84.8250         -51.5460          16.3560         -59.8100         -52.2790
           9.2865          -0.0000           0.0000        -158.5900        -248.5600         -68.9590
          34.0990         -13.3240         -21.5270          16.7450         114.4400         -34.1330
        -230.8800         -15.3030         100.7200         -21.5850         -84.0370           0.0000
           0.0000          -0.0000          -0.0000          -0.0000          -0.0000           0.0000
           0.0000           0.0000           0.0000           0.0000           0.0000          -0.0000
           0.0000          -0.0000           0.0000          -0.0000
SCALARS Imag_eb float 1
LOOKUP_TABLE default
          -0.0000           0.0000          -0.0000           0.0000          -0.0000           0.0000
          -0.0000           0.0000          -0.0000          -0.0000           0.0000          -0.0000
           0.0000          -0.0000           0.0000          -0.0000           0.0000         -59.6490
          63.2470         159.2600          62.7920         -22.0590          65.6630         152.6600
          73.6790        -101.1300        -223.0700        -188.2800        -198.0400        -353.7000
        -250.0100          -0.0000           0.0000         -51.5330         -51.4350         -31.7560
         -44.8430         -68.9880           3.8899         228.5800         434.0900         302.6100
          31.8340          68.8260          78.5040        -117.9100        -126.9100           0.0000
           0.0000        -112.9100         -96.3590          64.1150         104.0300        -114.5900
        -416.9500        -521.5700        -442.7900        -307.5600        -128.5900         -35.0810
           1.4172          49.7740           8.2334           0.0000          -0.0000          15.2830
          35.4270          12.7530          19.3140         129.7700         219.5400         199.4800
          82.4970         -37.0460         -95.8810         -99.6210         -56.7770        -124.4400
        -118.3700          -0.0000          -0.0000          37.5180         -10.2220         -42.9860
         -13.5620         -29.4220         -58.3440         -29.2160          66.9440         231.6600
         332.6000         239.7300         126.6100         145.8200         127.1600           0.0000
          -0.0000          56.7640          71.3220         -33.4580         -80.0430         -24.6320
          21.7540         -42.7270        -132.5700        -139.4200        -163.8600        -227.3400
        -244.1100        -281.3600        -185.8500           0.0000          -0.0000        -138.5800
          21.4400         205.9800         118.5200         -10.9010         -12.4660          42.2530
          91.9980          89.3830          14.5000          -9.4521         -14.8090        -116.0000
        -139.0700          -0.0000          -0.0000        -363.6700        -300.3500          36.3870
          54.3680         -53.2410          -5.7283          20.4760         -45.1400         -74.7130
         -20.8270         101.7800         114.9300        -206.4000        -342.2600           0.0000
          -0.0000        -269.6600        -365.0700         -44.9740          85.8070           4.0301
         -14.2780         -22.8750         -26.9890          75.3780          76.5840        -149.7300
          41.7530         460.5500         208.8500           0.0000          -0.0000         148.7300
          11.4750          11.4460          -9.9433         -53.2550          16.0260          62.8000
          14.3030           2.9621          41.9660          59.5280         470.9300        1372.8000
        1106.1000           0.0000          -0.0000         300.1900         269.3300          73.6420
          14.9580          38.5610          16.8600         -19.3060          -3.7458          -8.6576
        -155.1800         -55.3150         378.7000         638.5800         465.3400          -0.0000
           0.0000         -12.6980         -56.9540         -26.9950          -7.3523         -93.5150
         -78.9080          -3.2933         -50.7740         -53.5960          21.0050          -7.0186
         -16.8780          13.8790          13.6090          -0.0000           0.0000         -66.5010
        -136.0000         -89.8580          13.5700         -22.6980         -14.0110          55.2060
          77.2200          23.6540         -91.7020          12.1250          52.0640         -79.1460
         -97.0480           0.0000           0.0000        -169.6000        -379.7800        -176.4100
         161.3000         103.9300         -55.4010        -152.8100        -138.3800          52.2760
          -8.9316        -100.4200          42.8330          95.7380          17.7910           0.0000
           0.0000          -0.0000           0.0000          -0.0000           0.0000           0.0000
          -0.0000           0.0000          -0.0000           0.0000          -0.0000           0.0000
           0.0000           0.0000          -0.0000          -0.0000
SCALARS redotj float 1
LOOKUP_TABLE default
           0.0000           0.0000           0.0000           0.0000          -0.0000          -0.0000
           0.0000           0.0000           0.0000          -0.0000           0.0000           0.0000
           0.0000          -0.0000           0.0000           0.0000           0.0000       23539.0000
     -190930.0000    -2594200.0000      181860.0000      -21865.0000       64911.0000     -365940.0000
      721410.0000     -760170.0000       -8264.7002        4936.6001      -79514.0000     1528500.0000
    -1162200.0000          -0.0000          -0.0000      -50211.0000      732150.0000     -506010.0000
      -42447.0000       20803.0000       -2645.3999      -58991.0000       31781.0000     -528830.0000
       42585.0000       37828.0000      -62910.0000       94420.0000      641020.0000          -0.0000
           0.0000       91375.0000     1191700.0000     -665030.0000      -56658.0000       77294.0000
      -62969.0000       30284.0000      -99407.0000     -125620.0000      -84473.0000       11844.0000
     -122130.0000      419550.0000     -113240.0000          -0.0000           0.0000      -35105.0000
     -814290.0000       68192.0000      -79653.0000       69374.0000      -58529.0000       19660.0000
        4080.7000      137560.0000       21834.0000      -62797.0000      -30348.0000     -169470.0000
      632490.0000          -0.0000           0.0000     1256100.0000      -51274.0000     1456700.0000
     -114360.0000      465840.0000     -339550.0000      693400.0000    -1054900.0000     1108800.0000
     -669170.0000      495950.0000     -280520.0000      749190.0000     -580930.0000           0.0000
           0.0000       45180.0000     1691500.0000       81802.0000      309100.0000      -64891.0000
      -99183.0000      -91629.0000      111660.0000     -160410.0000      392180.0000     -440960.0000
      276090.0000     -664920.0000     6136600.0000          -0.0000           0.0000    -3483100.0000
    -1965200.0000     1318000.0000    -1396900.0000      112860.0000       81191.0000      -15246.0000
        6479.8999      621190.0000    -1955300.0000     3117800.0000    -2699000.0000     2669100.0000
    44434000.0000          -0.0000          -0.0000      -62482.0000     -474370.0000     -737210.0000
      -98119.0000     -135960.0000      -35812.0000       35286.0000       98252.0000     -112550.0000
      216030.0000     -112030.0000      348060.0000    -1193100.0000     5866900.0000           0.0000
           0.0000    -1789500.0000     4511500.0000     1113200.0000     -123090.0000       74394.0000
      -25846.0000      -36808.0000       91598.0000      189520.0000     -320980.0000      198000.0000
      392610.0000     -381280.0000   -10343000.0000          -0.0000           0.0000    -3498700.0000
     1749100.0000      232040.0000      148520.0000     -557220.0000     -100480.0000      791010.0000
     -751970.0000      130290.0000      -86708.0000     2647500.0000    -9566800.0000   120540000.0000
    20064000.0000           0.0000          -0.0000      735230.0000    -2068400.0000     1029200.0000